imageData/image_63.data (written by ASE) 

22 	 atoms 
3  atom types
14 	 bonds 
1  bond types
7 	 angles 
1  angle types

0.0      49.334326265288219  xlo xhi
0.0      49.334326265288219  ylo yhi
0.0      49.334326265288219  zlo zhi

Atoms 

    51  51   3   3.0      38.133812486901803      17.064436886699877      10.793115487811276
  3416 1310   1 -1.18      36.582320008122522      18.265476478709008      11.982049384061948
  3417 1310   2  0.59      35.932718266322453       17.91332142113076      12.591914081098221
  3418 1310   2  0.59      36.412008996268355       19.20834633122125      11.968503320331056
  4745 1753   1 -1.18      38.977328460626246      17.489398877451251      12.633767766547098
  4746 1753   2  0.59      38.808457861998008      18.280070657286146      13.150561001764892
  4747 1753   2  0.59      39.511287302619422      16.937232490862776      13.207565820353233
  6917 2477   1 -1.18      37.515857719481481      18.672410633173428      9.6063638347534006
  6918 2477   2  0.59      38.064667530621492      19.203656477130426      9.0268795834669149
  6919 2477   2  0.59      36.636121003766497      19.043386012481033      9.5105307520311797
  8342 2952   1 -1.18      36.645337854215093      15.700621456016703      11.252733564493704
  8343 2952   2  0.59      36.441130333845969      15.288473886723395      12.094080392839906
  8344 2952   2  0.59      36.015157824318891      15.318502084156673      10.639255790742302
 10241 3585   1 -1.18      37.953704974135306      16.164921156404358      8.9195510132691069
 10242 3585   2  0.59      37.337352578444204      16.391126897447339      8.2206557297567748
 10243 3585   2  0.59      38.519366372132545      15.494200352144148      8.5326345925223137
 11081 3865   1 -1.18       39.29553636133658      15.328355779874551       11.10260021604196
 11082 3865   2  0.59      40.220979527912256      15.237499207582051      11.336708247161038
 11083 3865   2  0.59      38.972193525130834      14.427203501608693      11.048818237490183
 11231 3915   1 -1.18      39.965074080115457      17.782897067688253      10.125603606091827
 11232 3915   2  0.59      40.443993192130229      18.554823963028905       10.43269316863095
 11233 3915   2  0.59       40.54760633539027       17.38097996833746      9.4785950474561638

Bonds 

     1   1 3416 3417
     2   1 3416 3418
     3   1 4745 4746
     4   1 4745 4747
     5   1 6917 6918
     6   1 6917 6919
     7   1 8342 8343
     8   1 8342 8344
     9   1 10241 10242
    10   1 10241 10243
    11   1 11081 11082
    12   1 11081 11083
    13   1 11231 11232
    14   1 11231 11233

Angles 

     1   1 3417 3416 3418
     2   1 4746 4745 4747
     3   1 6918 6917 6919
     4   1 8343 8342 8344
     5   1 10242 10241 10243
     6   1 11082 11081 11083
     7   1 11232 11231 11233
