LAMMPS (23 Jun 2022)
Running on 64 partitions of processors
Step MaxReplicaForce MaxAtomForce GradV0 GradV1 GradVc EBF EBR RDT RD1 PE1 RD2 PE2 ... RDN PEN pathangle1 angletangrad1 anglegrad1 gradV1 ReplicaForce1 MaxAtomForce1 pathangle2 angletangrad2 ... ReplicaForceN MaxAtomForceN
0    42.185754    518.11889    1.2705034    40.913881    34.568407     12.87307   0.97011641    2.6530015            0   -806.89862  0.015561151   -806.86116  0.031122886   -806.79557  0.046685598   -806.70296   0.06224968   -806.58561  0.077815524   -806.44377  0.093383523   -806.27922   0.10895407   -806.09365   0.12452756   -805.88773   0.14010438   -805.66277   0.15568494   -805.42115   0.17126964    -805.1625   0.18685886   -804.88874   0.20245303   -804.60133   0.21805255   -804.30131   0.23365782   -803.99015   0.24926927    -803.6686   0.26488731   -803.33785   0.28051236   -802.99929   0.29614487   -802.65395   0.31178526   -802.30267   0.32743397   -801.94694   0.34309146    -801.5877   0.35875817   -801.22667   0.37443458   -800.86341   0.39012116   -800.50022   0.40581838    -800.1376   0.42152674   -799.77676   0.43724673   -799.41872   0.45297888   -799.06403   0.46872369   -798.71438   0.48448172   -798.37048    0.5002535   -798.03234    0.5160396     -797.703    0.5318406   -797.38121   0.54765709   -797.06938   0.56348967   -796.76723   0.57933899   -796.47699   0.59520568   -796.19826   0.61109041   -795.93326   0.62699387   -795.68136   0.64291677   -795.44506   0.65885985   -795.22356   0.67482387   -795.01917   0.69080961   -794.83139    0.7068179   -794.66185   0.72284959    -794.5108   0.73890555   -794.37926   0.75498672   -794.26792   0.77109404    -794.1766   0.78722851   -794.10671   0.80339119   -794.05799   0.81958316   -794.03107   0.83580556   -794.02555   0.85205958   -794.04168    0.8683465   -794.07935   0.88466761   -794.13755   0.90102432   -794.21582   0.91741808   -794.31202   0.93385044    -794.4258   0.95032303   -794.55393   0.96683758   -794.69405   0.98339592   -794.84271            1   -794.99566 nan                63.874       106.31       1.2705       1.2705      0.23571      179.74       65.502       168.12       3.0259       2.7535       2.1304      179.74       70.471       175.88       5.7345       5.4046       9.6316      179.74       72.435       177.89       8.4375       8.0441       22.014      179.74       73.499       178.66       11.066       10.611       38.722      179.73       74.187       179.02       13.606       13.091       59.193      179.73       74.681        179.2       16.049       15.478        82.87      179.73       75.063        179.3       18.392        17.77       109.19      179.73       75.375       179.35       20.632       19.963       137.62      179.73       75.639       179.39       22.767       22.056       167.61      179.73       75.869        179.4       24.797       24.047       198.63      179.73       76.075       179.41       26.719       25.934        230.2      179.73       76.262       179.42       28.533       27.716       261.83      179.73       76.435       179.42       30.237       29.394       293.08      179.73       76.597       179.41       31.832       30.965        323.5      179.73       76.751       179.41       33.317       32.431       352.72      179.73       76.897        179.4       34.693        33.79       380.37      179.73       77.039       179.39       35.959       35.042       406.13      179.73       77.177       179.38       37.115        36.19       429.71      179.73       77.312       179.36       38.164       37.232       450.87      179.72       77.445       179.34       39.105        38.17       469.38      179.72       77.577       179.32        39.94       39.005       485.08      179.72        77.71        179.3        40.67       39.738       497.84      179.72       77.844       179.28       41.297       40.371       507.56      179.72        77.98       179.25       41.823       40.906       514.19      179.72       78.119       179.22       42.249       41.344        517.7      179.72       78.262       179.18       42.579       41.689       518.12      179.71       78.411       179.14       42.815       41.942       515.49      179.71       78.565       179.09       42.959       42.106       509.89      179.71       78.728       179.04       43.016       42.186       501.45      179.71       78.899       178.99       42.987       42.183       490.29      179.71       79.081       178.93       42.879       42.102       476.59       179.7       79.276       178.86       42.693       41.948       460.53       179.7       79.484       178.78       42.436       41.723       442.33       179.7        79.71        178.7       42.111       41.434       422.21       179.7       79.953       178.61       41.725       41.085       400.42      179.69       80.219       178.51       41.283       40.683       377.22      179.69       80.508       178.39       40.793       40.234       352.86      179.69       80.824       178.27        40.26       39.745       327.62      179.69       81.171       178.14       39.693       39.223       301.77      179.68       81.552          178       39.102       38.677        275.6      179.68       81.971       177.85       38.494       38.117       249.37      179.68        82.43       177.69       37.883       37.553       227.33      179.67       82.933       177.52       37.278       36.994       227.65      179.67       83.483       177.35       36.692       36.455       227.86      179.66       84.083       177.18       36.139       35.947          228      179.66       84.732       177.01       35.633       35.483       228.09      179.65        85.43       176.85       35.189       35.077       228.14      179.65       86.174       176.71       34.821       34.744       228.17      179.65       86.959       176.59       34.544       34.496       228.19      179.64       87.776       176.49       34.371       34.345       228.22      179.63       88.615       176.44       34.312       34.302       228.28      179.63       89.462       176.43       34.376       34.375       228.35      179.62       90.179       176.46       34.568       34.568       228.37      179.62       90.951       176.54       34.888       34.884       228.48      179.61       91.724       176.67       35.331       35.315       228.64       179.6       92.441       176.83       35.887       35.854       228.83       179.6       93.087       177.03       36.539       36.486       229.03      179.59       93.648       177.25       37.267       37.191       229.23      179.58       94.114        177.5       38.043       37.945       229.42      179.57       94.473       177.75       38.834       38.716       229.56      179.56       94.713       177.99       39.605       39.471       229.65      179.55       94.823       178.19       40.313        40.17       229.63nan                94.787 nan                40.914       40.914       235.86
1000    30.954255    416.10629     1.127988    13.256377    13.457345    12.850735   0.97489155    2.6531643            0   -806.89863  0.015573232   -806.86145   0.03113401   -806.79681  0.046695761    -806.7057  0.062258877    -806.5904  0.077823749   -806.45103  0.093390768   -806.28968   0.10896033   -806.10709   0.12453282   -805.90495   0.14010863    -805.6839   0.15568817   -805.44553   0.17127183   -805.19115   0.18686001   -804.92133   0.20245312   -804.63811   0.21805155   -804.34194   0.23365573   -804.03423   0.24926606   -803.71639   0.26488296   -803.38898   0.28050686   -803.05366   0.29613819   -802.71106   0.31177738   -802.36247   0.32742487   -802.00896   0.34308112   -801.65202   0.35874656   -801.29221   0.37442168   -800.93054   0.39010694   -800.56799   0.40580281   -800.20654    0.4215098   -799.84566    0.4372284   -799.48758   0.45295912   -799.13248   0.46870248    -798.7826   0.48445903   -798.43733    0.5002293   -798.09853   0.51601387   -797.76706    0.5318133   -797.44378    0.5476282   -797.12971   0.56345917   -796.82579   0.57930684   -796.53295   0.59517186   -796.25228    0.6110549   -795.98429   0.62695663   -795.73021   0.64287779   -795.49086    0.6588191   -795.26707   0.67478132   -795.05957   0.69076524    -794.8694   0.70677169   -794.69736   0.72280152   -794.54385   0.73885561   -794.41021   0.75493487   -794.29664   0.77104028   -794.20385   0.78717283   -794.13224   0.80333357    -794.0823   0.81952358   -794.05418   0.83574473    -794.0479   0.85199704   -794.06351   0.86828198   -794.10122   0.88460112   -794.15946   0.90095584   -794.23805   0.91734761   -794.33489   0.93377798    -794.4494   0.95024857   -794.57844   0.96676113   -794.71938   0.98331748   -794.86874            1   -795.02279 nan                60.123       105.21        1.128        1.128      0.23895      179.73       59.017       166.62         2.41       2.0661       1.6909      179.73       65.584       175.33       4.5664        4.158        7.619      179.73       68.143       177.59       6.7247       6.2413       17.394      179.73       69.495       178.48       8.8177        8.259       30.575      179.73       70.343        178.9       10.831         10.2       46.723      179.73       70.935       179.13       12.759       12.059         65.4      179.73       71.379       179.26       14.599       13.835       86.169      179.73       71.729       179.34       16.349       15.525       108.61      179.73       72.016       179.39       18.008       17.128        132.3      179.73       72.259       179.42       19.576       18.645       156.83      179.73       72.469       179.44        21.05       20.073       181.83      179.73       72.655       179.45       22.432       21.412       206.91      179.73       72.822       179.46       23.721       22.663       231.74      179.73       72.974       179.46       24.916       23.824       255.97      179.73       73.114       179.46       26.018       24.896        279.3      179.73       73.245       179.46       27.026       25.879       301.46      179.73       73.368       179.46       27.942       26.773       322.19      179.73       73.485       179.45       28.765       27.578       341.25      179.73       73.597       179.44       29.496       28.296       358.46      179.72       73.706       179.43       30.136       28.925       373.64      179.72       73.812       179.42       30.685       29.468       386.64      179.72       73.916        179.4       31.144       29.925       397.35      179.72       74.019       179.38       31.514       30.296        405.7      179.72       74.123       179.37       31.797       30.584       411.62      179.72       74.227       179.34       31.993       30.788       415.09      179.72       74.333       179.32       32.104       30.911       416.11      179.71       74.443       179.29       32.131       30.954        414.7      179.71       74.556       179.26       32.077       30.918       410.92      179.71       74.675       179.23       31.941       30.805       404.84      179.71         74.8       179.19       31.727       30.617       396.56      179.71       74.933       179.15       31.435       30.355       386.19       179.7       75.076        179.1       31.069       30.021       373.89       179.7       75.231       179.05        30.63       29.618       359.79       179.7         75.4       178.99       30.121       29.148       344.08       179.7       75.585       178.92       29.543       28.613       326.95      179.69        75.79       178.84         28.9       28.016       308.57      179.69       76.019       178.74       28.195       27.359       289.17      179.69       76.275       178.64        27.43       26.647       268.96      179.69       76.563       178.52        26.61       25.882       248.16      179.68       76.891       178.38       25.739       25.068       226.99      179.68       77.264       178.21       24.821        24.21       205.68      179.68       77.692       178.02       23.861       23.313       184.46      179.67       78.186        177.8       22.867       22.383       163.55      179.67       78.757       177.54       21.844       21.425       143.16      179.66       79.422       177.24       20.802       20.449       123.51      179.66       80.198       176.89       19.751       19.462        104.8      179.66       81.106       176.48       18.702       18.477       87.223      179.65        82.17       176.01       17.671       17.506       70.947      179.65       83.415       175.48       16.674       16.564        56.13      179.64       84.864       174.91       15.731       15.668       42.908      179.64       86.534       174.31       14.864       14.837       39.666      179.63       88.429       173.74       14.098       14.093       37.783      179.62       90.492       173.25       13.457       13.457       35.739      179.62       92.726       172.92       12.962       12.947       33.551      179.61       95.036        172.8       12.627       12.578       31.228       179.6       97.294       172.91       12.455       12.355       28.783       179.6       99.382       173.25       12.436       12.269       26.231      179.59        101.2       173.77       12.541       12.302       23.592      179.58        102.7       174.38       12.732       12.421        20.89      179.57       103.84       175.03       12.958       12.582       19.121      179.56       104.64       175.65       13.162       12.735       23.516      179.55        105.1       176.19       13.283       12.824       27.124nan                105.22 nan                13.256       13.256       33.606
2000    24.754282    232.09996     1.101449    11.378477    11.979959    12.823999   0.97238415    2.6539343            0   -806.89886  0.015605588   -806.86199  0.031161962   -806.79916  0.046719345   -806.71113  0.062278141   -806.59914  0.077838737    -806.4648  0.093401525   -806.30885   0.10896689    -806.1322   0.12453523   -805.93642   0.14010693   -805.72232   0.15568239   -805.49154   0.17126199    -805.2442   0.18684615   -804.98209   0.20243525   -804.70631   0.21802971   -804.41746   0.23362992   -804.11713    0.2492363   -803.80583   0.26484927   -803.48512   0.28046925   -803.15599   0.29609665   -802.81895   0.31173192   -802.47574    0.3273755   -802.12687   0.34302781   -801.77398   0.35868933   -801.41763    0.3743605   -801.05846    0.3900418   -800.69868    0.4057337   -800.33821    0.4214367   -799.97846   0.43715129   -799.62043   0.45287798   -799.26517   0.46861729   -798.91386   0.48436975   -798.56686   0.50013592   -798.22579   0.51591635   -797.89148   0.53171162   -797.56463   0.54752232   -797.24676   0.56334906   -796.93851   0.57919247   -796.64082   0.59505321   -796.35485   0.61093192   -796.08147   0.62682931   -795.82191   0.64274609   -795.57655   0.65868299   -795.34681   0.67464079   -795.13351   0.69062026   -794.93725   0.70662224   -794.75919   0.72264757    -794.6002   0.73869716    -794.4609   0.75477191   -794.34251   0.77087281   -794.24472   0.78700084     -794.169   0.80315707   -794.11524    0.8193426    -794.0837   0.83555913   -794.07486   0.85180688    -794.0884   0.86808738   -794.12434   0.88440213   -794.18163   0.90075252   -794.25943   0.91714003   -794.35657   0.93356623    -794.4712   0.95003276   -794.60084   0.96654136   -794.74219   0.98309396   -794.89153            1   -795.04725 nan                59.043       116.52       1.1014       1.1014      0.23861      179.73       53.111       164.69       2.0236       1.6185      0.90448      179.73       59.597       174.27       3.6217       3.1236       4.0373      179.73       62.539       176.98        5.255        4.663       9.1887      179.73       64.164       178.08       6.8521       6.1672       16.131      179.73       65.203       178.61       8.3964       7.6223       24.634      179.73       65.936       178.91       9.8823       9.0235       34.477      179.73       66.491       179.08       11.307       10.369        45.44      179.73       66.933       179.18       12.669       11.656       57.309      179.73       67.298       179.25       13.968       12.886       69.873      179.73       67.611        179.3       15.202       14.056       82.933      179.73       67.884       179.33       16.372       15.167       96.296      179.73       68.129       179.35       17.476       16.218       109.77      179.73       68.352       179.36       18.515       17.209       123.19      179.73       68.559       179.37       19.488        18.14       136.38      179.73       68.752       179.37       20.396       19.009       149.19      179.73       68.935       179.37       21.237       19.818       161.47      179.73        69.11       179.37       22.012       20.565       173.08      179.72        69.28       179.37       22.721       21.251       183.91      179.72       69.445       179.36       23.363       21.875       193.84      179.72       69.607       179.36       23.939       22.439       202.79      179.72       69.767       179.35       24.449        22.94       210.65      179.72       69.927       179.33       24.892        23.38       217.37      179.72       70.087       179.32        25.27       23.759       222.87      179.72       70.248        179.3       25.582       24.076       227.12      179.72       70.412       179.29       25.828       24.333       230.09      179.71       70.579       179.27       26.008       24.529       231.75      179.71       70.751       179.24       26.124       24.664        232.1      179.71       70.929       179.21       26.176       24.739       231.14      179.71       71.114       179.18       26.163       24.754        228.9      179.71       71.308       179.15       26.086        24.71        225.4      179.71       71.512       179.11       25.947       24.608       220.68       179.7       71.728       179.06       25.746       24.448       214.81       179.7       71.959       179.01       25.483        24.23       207.85       179.7       72.206       178.95        25.16       23.957       199.87       179.7       72.474       178.89       24.778       23.628       190.96      179.69       72.764       178.81       24.338       23.245       181.21      179.69       73.081       178.72       23.842        22.81       170.74      179.69        73.43       178.62       23.292       22.325       159.65      179.69       73.817        178.5        22.69       21.791       148.06      179.68       74.247       178.37       22.038        21.21        136.1      179.68       74.729       178.21        21.34       20.587        123.9      179.68       75.273       178.03         20.6       19.923       111.59      179.67        75.89       177.81       19.821       19.223       99.311      179.67       76.594       177.56       19.011       18.493       87.206      179.67       77.402       177.27       18.174       17.737       75.415      179.66       78.332       176.93       17.321       16.963       64.074      179.66       79.409       176.53        16.46       16.179        53.32      179.65       80.657       176.07       15.603       15.396       43.284      179.65       82.105       175.56       14.766       14.626       38.358      179.64       83.778       174.99       13.964       13.882       36.999      179.64       85.698        174.4       13.219       13.181       35.494      179.63       87.869       173.82        12.55       12.541       33.844      179.63       90.297        173.3        11.98        11.98        32.06      179.62       92.901       172.93       11.529       11.514       30.144      179.61       95.575       172.75       11.211       11.158       28.103       179.6       98.208       172.81       11.031       10.918       25.951       179.6       100.66        173.1       10.982       10.792       23.701      179.59       102.83       173.57       11.039       10.764        21.37      179.58       104.62       174.15       11.169       10.807       18.979      179.56       106.01       174.79       11.325       10.886        16.55      179.55       106.99       175.42       11.453       10.953       17.549      179.53       107.59       175.93       11.493       10.956       20.391nan                 107.8 nan                11.378       11.378       25.925
3000    17.778215     80.26286    1.0801722    10.317841    10.883109    12.782924   0.96807245    2.6554446            0   -806.89921  0.015664952   -806.86261  0.031212756   -806.80116  0.046761616   -806.71557  0.062311995   -806.60703  0.077864277   -806.47648  0.093418849   -806.32536    0.1089761   -806.15401    0.1245364   -805.96414   0.14010016   -805.75627   0.15566776   -805.53187   0.17123958   -805.29163   0.18681603   -805.03615   0.20239749   -804.76759   0.21798437   -804.48602   0.23357707    -804.1924   0.24917598   -803.88813   0.26478153   -803.57444   0.28039413   -803.25142    0.2960142   -802.92088   0.31164216   -802.58353   0.32727844   -802.24055   0.34292349    -801.8925   0.35857775   -801.54071   0.37424167   -801.18625   0.38991573   -800.82962   0.40560038   -800.47218   0.42129612   -800.11479   0.43700344    -799.7589   0.45272284   -799.40458   0.46845483   -799.05361   0.48419996   -798.70677   0.49995875   -798.36485   0.51573177   -798.02907   0.53151959   -797.70046    0.5473228   -797.37968   0.56314201   -797.06809   0.57897784   -796.76706   0.59483094   -796.47678   0.61070196    -796.1986   0.62659161   -795.93394   0.64250059   -795.68299   0.65842965   -795.44747   0.67437953   -795.22833   0.69035105   -795.02596   0.70634502   -794.84176    0.7223623   -794.67649   0.73840379   -794.53145   0.75447041    -794.4066   0.77056314   -794.30357   0.78668301   -794.22265   0.80283108   -794.16404   0.81900846    -794.1285   0.83521631   -794.11629   0.85145542    -794.1271   0.86772789   -794.16066   0.88403472   -794.21669   0.90037735   -794.29372   0.91675732   -794.39063   0.93317623   -794.50512    0.9496358   -794.63488   0.96613782   -794.77666   0.98268467   -794.92611            1   -795.08436 nan                58.131       132.43       1.0802       1.0802      0.23801      179.73       44.069       163.17       1.6608       1.1551      0.29083      179.73       47.895        172.7       2.6642       1.9766       1.2687      179.73       50.857       175.95       3.7292       2.8923       2.8664      179.73       52.767       177.36       4.7876       3.8118       5.0142      179.73        54.09       178.07       5.8213       4.7149       7.6451      179.73       55.074       178.47       6.8239       5.5949       10.694      179.73       55.851       178.71       7.7926        6.449       14.097      179.73       56.495       178.87        8.726       7.2761       17.795      179.73       57.048       178.97       9.6234       8.0752       21.729      179.73       57.538       179.04       10.484       8.8462       25.843      179.73       57.984       179.09       11.308       9.5884       30.082      179.72       58.396       179.12       12.095       10.302       34.396      179.72       58.784       179.15       12.845       10.985       38.736      179.72       59.154       179.17       13.557        11.64       43.053      179.72       59.511       179.18       14.232       12.264       47.302      179.72       59.858       179.19       14.868       12.857       51.442      179.72       60.198        179.2       15.466        13.42       55.432      179.72       60.534       179.21       16.025       13.952       59.233      179.72       60.866       179.21       16.544       14.451       62.811      179.72       61.197       179.21       17.025       14.918       66.129      179.72       61.528        179.2       17.465       15.353        69.16      179.72        61.86        179.2       17.865       15.753       71.873      179.72       62.195       179.19       18.224        16.12       74.244      179.71       62.533       179.18       18.541       16.451        76.25      179.71       62.875       179.17       18.817       16.747       77.869      179.71       63.224       179.16        19.05       17.008       79.087      179.71       63.579       179.14       19.241       17.231       79.888      179.71       63.942       179.12       19.388       17.418       80.263      179.71       64.315       179.09       19.492       17.566       80.201      179.71         64.7       179.06       19.551       17.676       79.704       179.7       65.097       179.02       19.566       17.747       78.767       179.7       65.511       178.98       19.536       17.778       77.398       179.7       65.942       178.94        19.46        17.77       75.602       179.7       66.394       178.88        19.34       17.721       73.395       179.7        66.87       178.82       19.173       17.632       70.792      179.69       67.374       178.74       18.962       17.503       67.812      179.69        67.91       178.66       18.706       17.333       64.485      179.69       68.485       178.56       18.405       17.123       60.839      179.69       69.104       178.45       18.061       16.873       56.912      179.68       69.776       178.32       17.675       16.585       52.741      179.68       70.509       178.16       17.248        16.26       48.374      179.68       71.313       177.98       16.783       15.898       43.861      179.67       72.203       177.78       16.283       15.504       39.255      179.67       73.193       177.54       15.751       15.079       35.509      179.67         74.3       177.26       15.194       14.627       34.954      179.66       75.546       176.94       14.616       14.153       34.281      179.66       76.952       176.57       14.025       13.663        33.49      179.66       78.543       176.16       13.432       13.164        32.58      179.65       80.345        175.7       12.847       12.665       31.552      179.65       82.378       175.21       12.284       12.175       30.406      179.64       84.655       174.71       11.758       11.707       29.143      179.64       87.175       174.22       11.285       11.272       27.769      179.63       89.936       173.81       10.883       10.883       26.287      179.62       92.861       173.51       10.566       10.553       24.703      179.61       95.822       173.37       10.345       10.291        23.02       179.6       98.725       173.42       10.222       10.104       21.248      179.59       101.44       173.66       10.192       9.9895       19.399      179.58       103.86       174.05       10.237       9.9391       17.486      179.56       105.88       174.55       10.329       9.9347       15.524      179.55       107.48        175.1       10.431       9.9499       13.532      179.53       108.62       175.65       10.499       9.9499       11.533       179.5       109.31       176.01       10.483       9.8936       12.312nan                109.54 nan                10.318       10.318       16.465
4000    12.501633    27.929972    1.0702629    9.1363708    9.5306247    12.724597   0.96273775    2.6581423            0   -806.89989  0.015771813   -806.86313  0.031304353   -806.80242   0.04683785    -806.7184  0.062372994   -806.61194  0.077910165   -806.48382  0.093449743   -806.33544   0.10899211   -806.16763   0.12453765   -805.98144   0.14008674   -805.77784   0.15563977   -805.55774   0.17119713    -805.3219   0.18675921   -805.07143    0.2023264    -804.8077   0.21789908   -804.53143   0.23347767    -804.2432   0.24906257   -803.94434   0.26465418   -803.63614   0.28025291    -803.3185   0.29585918   -802.99344   0.31147341   -802.66141   0.32709603   -802.32361   0.34272747   -801.98067   0.35836819   -801.63388   0.37401862   -801.28343   0.38967923   -800.93146   0.40535049   -800.57836   0.42103287   -800.22451   0.43672685   -799.87186   0.45243295    -799.5206   0.46815167   -799.17211   0.48388354   -798.82714   0.49962909   -798.48682   0.51538887   -798.15222   0.53116344   -797.82399   0.54695341   -797.50343   0.56275935   -797.19128   0.57858189   -796.88881   0.59442167   -796.59676   0.61027935   -796.31655   0.62615561   -796.04878   0.64205114   -795.79516   0.65796669     -795.556   0.67390301   -795.33253   0.68986089   -795.12583   0.70584114   -794.93712   0.72184463   -794.76725   0.73787226   -794.61684   0.75392495   -794.48719   0.77000369   -794.37926   0.78610953   -794.29349   0.80224356   -794.23072   0.81840694   -794.19117   0.83459991   -794.17529   0.85082353    -794.1832    0.8670822   -794.21454   0.88337548   -794.26873   0.89970493   -794.34469   0.91607221   -794.44091   0.93247909   -794.55535   0.94892745   -794.68504   0.96541928   -794.82658   0.98195852   -794.97489            1   -795.13803 nan                57.692       144.41       1.0703       1.0703      0.23714      179.72       37.151       163.84       1.4835      0.89589     0.097156      179.72       34.946       171.85       2.1466       1.2296      0.21705      179.72       36.275       175.15       2.8688       1.6973      0.58356      179.72       37.793       176.72       3.5966        2.204       1.0993      179.72       39.088       177.56       4.3129       2.7193       1.7426      179.72        40.17       178.05        5.011       3.2324       2.4943      179.72       41.096       178.34        5.688       3.7389       3.3367      179.72       41.911       178.54       6.3427       4.2367       4.2544      179.72       42.647       178.66       6.9742       4.7249       5.2334      179.72       43.328       178.75       7.5822       5.2027        6.261      179.72        43.97       178.82       8.1666       5.6699       7.3257      179.72       44.584       178.86       8.7272       6.1261       8.4178      179.72       45.179        178.9       9.2639        6.571       9.5282      179.72       45.761       178.93       9.7768       7.0044       10.649      179.72       46.334       178.95       10.266       7.4259       11.771      179.72       46.901       178.96        10.73        7.835        12.89      179.72       47.466       178.98       11.171       8.2315       13.999      179.72       48.031       178.99       11.587       8.6149       15.092      179.72       48.597       178.99       11.978       8.9846       16.165      179.71       49.165          179       12.345         9.34       17.213      179.71       49.738          179       12.686       9.6805       18.232      179.71       50.315          179       13.002       10.006       19.217      179.71       50.898       178.99       13.291       10.315       20.165      179.71       51.489       178.99       13.555       10.606       21.074      179.71       52.087       178.98       13.792       10.881       21.938      179.71       52.695       178.97       14.001       11.137       22.756      179.71       53.313       178.96       14.183       11.373       23.524       179.7       53.943       178.94       14.336        11.59       24.239       179.7       54.587       178.92       14.461       11.786       24.899       179.7       55.246        178.9       14.556        11.96       25.501       179.7       55.922       178.87       14.622       12.111       26.042       179.7       56.619       178.83       14.657       12.239        26.52       179.7       57.338       178.79       14.661       12.343       26.933      179.69       58.084       178.74       14.634       12.422       27.277      179.69        58.86       178.68       14.575       12.475       27.551      179.69       59.671       178.61       14.484       12.502       27.752      179.69       60.523       178.54        14.36       12.502       27.879      179.69       61.422       178.44       14.205       12.474        27.93      179.68       62.376       178.33       14.017       12.419       27.902      179.68       63.393       178.21       13.798       12.337       27.795      179.68       64.486       178.06       13.548       12.227       27.607      179.68       65.665       177.89       13.269        12.09       27.336      179.67       66.946       177.69       12.963       11.928       26.983      179.67       68.345       177.47       12.632       11.741       26.546      179.67       69.882        177.2       12.281       11.531       26.026      179.66       71.577        176.9       11.912       11.302       25.422      179.66       73.454       176.57       11.533       11.055       24.735      179.66       75.536       176.19        11.15       10.797       23.966      179.65       77.844       175.79       10.772       10.531       23.116      179.65       80.394       175.37        10.41       10.264       22.188      179.64       83.189       174.95       10.074       10.003       21.184      179.64       86.217       174.56       9.7771       9.7558       20.107      179.63       89.463       174.25       9.5306       9.5302       18.963      179.62       92.867       174.04       9.3448       9.3331       17.757      179.61       96.248       173.97       9.2258        9.171       16.486       179.6       99.536       174.05       9.1742       9.0474       15.163      179.58       102.61       174.28       9.1833       8.9619       13.795      179.56       105.34       174.64        9.238       8.9088        12.39      179.54       107.66       175.09       9.3154       8.8765        10.96      179.51       109.49       175.58       9.3846        8.847       9.5169      179.47       110.81       176.07       9.4096        8.796       8.0774      179.41       111.58       176.22       9.3494       8.6938        6.657nan                111.81 nan                9.1364       9.1364       7.9174
5000     9.817702    19.562295    1.0657884     8.176462    8.1121506    12.653831      0.95971    2.6624343            0   -806.90092  0.015945839   -806.86377  0.031454344   -806.80356  0.046963206   -806.72034  0.062473822   -806.61522  0.077986564   -806.48888  0.093501805   -806.34272   0.10901992   -806.17716   0.12454128   -805.99344   0.14006628   -805.79282    0.1555953   -805.57597   0.17112871   -805.34394   0.18666692    -805.0974   0.20221032   -804.83768    0.2177593   -804.56537   0.23331427   -804.28142   0.24887562   -803.98713   0.26444378   -803.68276   0.28001915   -803.37001   0.29560216   -803.04951   0.31119322   -802.72185   0.32679278    -802.3886   0.34240127   -802.05019   0.35801913   -801.70757   0.37364682   -801.36172    0.3892848   -801.01404   0.40493355   -800.66463   0.42059352   -800.31501   0.43626523   -799.96565   0.45194916   -799.61795   0.46764583   -799.27229   0.48335575   -798.93012   0.49907947   -798.59234   0.51481753   -798.25954   0.53057048    -797.9329   0.54633892    -797.6134   0.56212342   -797.30252   0.57792461   -797.00008    0.5937431   -796.70796   0.60957954    -796.4273    0.6254346   -796.15826   0.64130898   -795.90286   0.65720338   -795.66186   0.67311854   -795.43643   0.68905524   -795.22705   0.70501429   -795.03497   0.72099652   -794.86191   0.73700284   -794.70811   0.75303416   -794.57519   0.76909149   -794.46341    0.7851759   -794.37428   0.80128851   -794.30809   0.81743055   -794.26549   0.83360107   -794.24709   0.84979992   -794.25244   0.86603771    -794.2819   0.88231062   -794.33469   0.89862043   -794.40995   0.91496908   -794.50566   0.93135869   -794.61969   0.94779149   -794.74897   0.96426986   -794.88926   0.98080241   -795.03646            1    -795.2068 nan                57.498       147.52       1.0658       1.0658      0.23592       179.7       35.228       164.46       1.4417       0.8316     0.097257      179.71       30.374       171.78       2.0202       1.0215       0.1513      179.71        30.52          175       2.6529       1.3472      0.42033      179.71       31.578       176.59       3.2921       1.7239      0.80329      179.71       32.679       177.46       3.9215       2.1174        1.284      179.71       33.672       177.98       4.5344       2.5141       1.8478      179.71       34.552       178.29       5.1277       2.9082       2.4814      179.72       35.341        178.5       5.6999        3.297       3.1726      179.72       36.061       178.64         6.25        3.679       3.9103      179.72       36.729       178.74       6.7777       4.0533       4.6848      179.72       37.361        178.8       7.2827       4.4194       5.4868      179.72       37.966       178.85       7.7649       4.7769       6.3085      179.72       38.552       178.89       8.2241       5.1255       7.1422      179.72       39.125       178.92       8.6604       5.4648       7.9813      179.72       39.689       178.94       9.0737       5.7947       8.8199      179.71       40.248       178.95       9.4639       6.1146       9.6522      179.71       40.805       178.97        9.831       6.4245       10.474      179.71       41.362       178.97       10.175       6.7237       11.279      179.71       41.921       178.98       10.496       7.0121       12.065      179.71       42.483       178.98       10.793       7.2892       12.827      179.71        43.05       178.98       11.067       7.5546       13.562      179.71       43.624       178.97       11.317       7.8078       14.267      179.71       44.205       178.97       11.543       8.0483       14.937      179.71       44.796       178.96       11.746       8.2758       15.572       179.7       45.397       178.95       11.924       8.4897       16.168       179.7        46.01       178.93       12.078       8.6896       16.723       179.7       46.637       178.92       12.207       8.8748       17.234       179.7        47.28       178.89       12.312        9.045       17.699       179.7       47.941       178.87       12.391       9.1995       18.116       179.7       48.622       178.84       12.445        9.338       18.484      179.69       49.326        178.8       12.473       9.4598         18.8      179.69       50.057       178.76       12.475       9.5646       19.064      179.69       50.819       178.71       12.451       9.6518       19.273      179.69       51.615       178.66       12.402        9.721       19.427      179.69       52.452       178.59       12.325        9.772       19.523      179.68       53.335       178.52       12.223       9.8043       19.562      179.68       54.272       178.43       12.094       9.8177       19.543      179.68       55.271       178.33       11.939       9.8122       19.465      179.68       56.342       178.21       11.759       9.7876       19.327      179.68       57.498       178.07       11.554       9.7442       19.131      179.67       58.753        177.9       11.325       9.6823       18.875      179.67       60.122       177.72       11.074       9.6025       18.561      179.67       61.625        177.5       10.804       9.5057        18.19      179.67       63.284       177.25       10.516       9.3931       17.762      179.66       65.123       176.96       10.214       9.2665       17.278      179.66        67.17       176.64       9.9036       9.1277       16.742      179.66       69.451       176.27       9.5898       8.9796       16.155      179.65       71.995       175.88       9.2797       8.8253       15.519      179.65       74.824       175.46       8.9818       8.6686       14.837      179.65       77.949       175.05       8.7057       8.5138       14.113      179.64       81.367       174.65       8.4618       8.3659        13.35      179.64       85.045       174.32       8.2607       8.2299       12.551      179.63       88.941       174.09       8.1122       8.1108       11.722      179.62       93.003       173.99       8.0231       8.0121       10.869      179.61       96.954       174.05       7.9958        7.937       9.9883      179.59       100.73       174.27       8.0271       7.8866       9.0905      179.56        104.2       174.62       8.1065       7.8587       8.1811      179.53       107.24       175.06       8.2163        7.847       7.2659      179.49       109.77       175.57       8.3325       7.8412       6.3517      179.44       111.73       176.09       8.4253       7.8265       5.4466      179.37       113.09       176.58       8.4612       7.7835       4.6629      179.25       113.81       176.51       8.4048       7.6893       4.4024nan                113.86 nan                8.1765       8.1765       6.2855
6000    8.2565912    12.701911    1.0608045    7.5460873    6.8564528    12.581517    0.9676431     2.668548            0   -806.90248  0.016194916   -806.86465  0.031670041   -806.80481  0.047143911   -806.72245  0.062619667   -806.61863  0.078097665   -806.49418  0.093578265   -806.34998   0.10906184   -806.18695   0.12454875   -806.00624   0.14003938   -805.80873   0.15553411   -805.59555   0.17103333   -805.36685   0.18653743    -805.1243   0.20204682   -804.86827   0.21756188   -804.60015   0.23308304   -804.32055   0.24861071   -804.03059    0.2641453   -803.73059   0.27968723   -803.42232   0.29523693   -803.10654   0.31079484   -802.78335    0.3263614   -802.45448   0.34193705   -802.12041   0.35752224   -801.78193   0.37311744   -801.44052   0.38872311   -801.09673   0.40433973   -800.75095   0.41996777   -800.40478   0.43560774   -800.05879   0.45126013   -799.71387   0.46692546   -799.37124   0.48260424   -799.03137   0.49829701   -798.69525    0.5140043   -798.36443   0.52972669   -798.03892   0.54546472   -797.72039   0.56121899   -797.40943    0.5769901   -797.10733   0.59277864    -796.8148   0.60858525   -796.53333   0.62441057   -796.26329   0.64025528   -796.00637   0.65612005   -795.76373   0.67200561   -795.53565    0.6879127   -795.32393    0.7038421    -795.1293   0.71979463   -794.95313   0.73577118   -794.79661   0.75177267   -794.66086   0.76780012   -794.54634   0.78385464   -794.45442   0.79993744   -794.38565   0.81604985   -794.34109   0.83218974   -794.32096   0.84835305    -794.3252   0.86456217   -794.35406   0.88080736   -794.40653   0.89709082   -794.48178   0.91341504   -794.57802    0.9297827   -794.69263   0.94619672   -794.82225   0.96266014   -794.96236   0.97919252   -795.10785            1   -795.28861 nan                57.293       148.55       1.0608       1.0608      0.23426      179.68       34.342       164.83       1.4228      0.80266     0.096576      179.69       28.435        171.8       1.9645      0.93544     0.091235      179.69       28.004       174.96       2.5578        1.201      0.26815       179.7       28.822       176.56       3.1582       1.5225      0.52507       179.7       29.817       177.45       3.7498       1.8645      0.85119       179.7       30.756       177.98       4.3257       2.2121       1.2365       179.7         31.6       178.31       4.8827       2.5585       1.6716       179.7        32.36       178.53        5.419       2.9005       2.1482      179.71       33.051       178.68       5.9339       3.2363       2.6582      179.71       33.689       178.79       6.4265       3.5647       3.1943      179.71       34.288       178.86       6.8967       3.8852       3.7502      179.71       34.856       178.91       7.3441       4.1973       4.3195      179.71       35.402       178.95       7.7688       4.5005       4.8968      179.71        35.93       178.98       8.1705       4.7944       5.4771      179.71       36.447          179       8.5492       5.0789       6.0556      179.71       36.955       179.02       8.9049       5.3536       6.6282      179.71       37.458       179.03       9.2375       5.6181        7.191      179.71       37.958       179.04       9.5469       5.8722       7.7404      179.71       38.457       179.05       9.8331       6.1155       8.2732      179.71       38.956       179.05       10.096       6.3476       8.7863       179.7       39.458       179.05       10.336       6.5684        9.277       179.7       39.964       179.04       10.552       6.7773       9.7428       179.7       40.475       179.04       10.744        6.974       10.181       179.7       40.992       179.03       10.912       7.1581        10.59       179.7       41.519       179.02       11.057       7.3294       10.968       179.7       42.055          179       11.178       7.4873       11.312       179.7       42.603       178.98       11.274       7.6315       11.622      179.69       43.165       178.96       11.346       7.7616       11.895      179.69       43.743       178.93       11.393       7.8772        12.13      179.69        44.34        178.9       11.415       7.9781       12.326      179.69        44.96       178.86       11.412       8.0638       12.482      179.69       45.606       178.82       11.384       8.1341       12.598      179.68       46.283       178.77        11.33       8.1887       12.671      179.68       46.995       178.71       11.251       8.2274       12.702      179.68       47.749       178.63       11.146       8.2501        12.69      179.68       48.554       178.55       11.015       8.2566       12.636      179.67       49.417       178.45       10.859        8.247       12.539      179.67        50.35       178.33       10.678       8.2216       12.399      179.67       51.365       178.19       10.472       8.1805       12.218      179.67       52.479       178.03       10.243       8.1243       11.996      179.66       53.711       177.84       9.9919       8.0539       11.734      179.66       55.082       177.61       9.7198         7.97       11.433      179.66       56.621       177.35       9.4297       7.8742       11.095      179.66       58.357       177.04       9.1246       7.7681       10.722      179.65       60.329       176.68       8.8088       7.6538       10.317      179.65       62.576       176.28       8.4878        7.534       9.8808      179.65       65.143       175.82       8.1684       7.4117       9.4176      179.65       68.071       175.32       7.8592       7.2906       8.9298      179.65       71.395        174.8       7.5703       7.1747       8.4209      179.64       75.133        174.3       7.3134       7.0686       7.8941      179.64       79.269       173.85        7.101       6.9768        7.353      179.63       83.744       173.53       6.9453        6.904       6.8014      179.62       88.463       173.38       6.8565        6.854       6.2439      179.61       93.341       173.42       6.8403       6.8287       5.6865       179.6       97.984       173.68       6.8961       6.8293       5.1253      179.57       102.31       174.12       7.0156       6.8544       4.5692      179.53       106.14       174.68       7.1826       6.8993       4.0219      179.48       109.39        175.3       7.3741        6.956       3.4874      179.41       111.97       175.94       7.5616       7.0125       3.4607      179.33       113.86       176.54       7.7127       7.0535       3.4264      179.22       115.05       177.06       7.7935       7.0605       3.3196      179.03       115.51       176.74       7.7704       7.0127       3.1437nan                115.11 nan                7.5461       7.5461       4.6598
7000    7.1125443    7.6449216    1.0541559    7.1125443    5.8850034    12.510964    0.9922696    2.6768966            0   -806.90454  0.016530527   -806.86589  0.031961777   -806.80624  0.047388285   -806.72475  0.062816899   -806.62227  0.078247968   -806.49961  0.093681836   -806.35783   0.10911886   -806.19747   0.12455939   -806.01971   0.14000381   -805.82562    0.1554525   -805.61597   0.17090584   -805.39102   0.18636425   -805.15242   0.20182812   -804.90057   0.21729787   -804.63682   0.23277391   -804.36174   0.24825666   -804.07622   0.26374656   -803.78089   0.27924403   -803.47733   0.29474952   -803.16602   0.31026347   -802.84727   0.32578633   -802.52288   0.34131856   -802.19312   0.35686062   -801.85918   0.37241298   -801.52145    0.3879761   -801.18089   0.40355048   -800.83921   0.41913659   -800.49625   0.43473493   -800.15324     0.450346   -799.81095   0.46597031   -799.47055   0.48160837   -799.13257    0.4972607   -798.79814   0.51292783   -798.46838   0.52861029   -798.14381   0.54430863   -797.82555   0.56002342   -797.51447    0.5757552   -797.21194   0.59150455   -796.91843   0.60727206   -796.63577   0.62305833    -796.3638   0.63886398   -796.10503   0.65468963   -795.85976   0.67053595   -795.62934   0.68640365   -795.41501   0.70229344   -795.21773   0.71820614   -795.03851   0.73414257    -794.8795   0.75010371   -794.74079   0.76609059   -794.62414   0.78210442   -794.53014   0.79814656   -794.45986   0.81421857   -794.41417   0.83031709   -794.39358   0.84643203   -794.39823   0.86260247   -794.42774   0.87881073   -794.48157   0.89505982   -794.55892   0.91135316   -794.65711   0.92769456   -794.77383   0.94408809   -794.90511   0.96053801    -795.0462   0.97708639   -795.19128            1   -795.38585 nan                57.031       149.27       1.0542       1.0542      0.23202      179.64       33.517       165.24       1.4077      0.77733     0.095256      179.66       26.815       171.86       1.9189      0.86565     0.069607      179.66       25.858       174.95       2.4788       1.0811      0.14929      179.67       26.435       176.54       3.0461       1.3561      0.30438      179.67       27.318       177.44       3.6055       1.6547      0.50485      179.68       28.195       177.99         4.15       1.9608       0.7445      179.68       28.998       178.33       4.6764        2.267       1.0175      179.69       29.722       178.56       5.1828       2.5696       1.3184      179.69       30.379       178.72       5.6683       2.8665       1.6419      179.69       30.981       178.83       6.1321       3.1566       1.9833      179.69       31.541       178.91        6.574       3.4389        2.338      179.69       32.068       178.97       6.9936        3.713       2.7019       179.7       32.568       179.01       7.3907       3.9785       3.0711       179.7        33.05       179.04       7.7653       4.2349        3.442       179.7       33.515       179.07       8.1173       4.4821       3.8113       179.7        33.97       179.08       8.4466       4.7196       4.1759       179.7       34.416       179.09       8.7533       4.9473        4.533       179.7       34.856        179.1       9.0371       5.1649         4.88      179.69       35.293       179.11       9.2982        5.372       5.2146      179.69       35.727       179.11       9.5364       5.5685       5.5345      179.69       36.161       179.11       9.7517       5.7541       5.8376      179.69       36.597       179.11       9.9439       5.9283       6.1222      179.69       37.035        179.1       10.113        6.091       6.3866      179.69       37.477       179.09       10.259       6.2419       6.6291      179.69       37.924       179.08       10.381       6.3806       6.8484      179.68       38.379       179.07        10.48       6.5068       7.0432      179.68       38.843       179.05       10.555       6.6202       7.2125      179.68       39.319       179.03       10.607       6.7206       7.3551      179.68       39.807          179       10.634       6.8077       7.4703      179.68       40.312       178.97       10.636       6.8811       7.5573      179.67       40.837       178.93       10.614       6.9407       7.6157      179.67       41.385       178.89       10.567       6.9862       7.6449      179.67       41.961       178.84       10.495       7.0175       7.6449      179.67       42.571       178.77       10.398       7.0345       7.6155      179.66       43.222        178.7       10.276       7.0372       7.5569      179.66       43.923       178.61       10.128       7.0257       7.4694      179.66       44.683        178.5       9.9549       7.0001       7.3535      179.66       45.515       178.38       9.7568       6.9608       7.2099      179.65       46.436       178.22       9.5341       6.9084       7.0397      179.65       47.464       178.04       9.2877       6.8437       6.8439      179.65       48.623       177.82       9.0188       6.7675       6.6239      179.65       49.943       177.56       8.7291       6.6813       6.3815      179.64        51.46       177.25       8.4213       6.5869       6.1182      179.64       53.217       176.88       8.0986       6.4862       5.8363      179.64       55.267       176.45       7.7659       6.3821       5.5378      179.64        57.67       175.94       7.4292       6.2775        5.225      179.64       60.494       175.35       7.0965       6.1761       4.9008      179.64       63.806       174.71       6.7782       6.0821       4.5674      179.64       67.664       174.04       6.4868       6.0001       4.2279      179.64       72.096        173.4       6.2367       5.9347       3.8848      179.64       77.076       172.88       6.0438       5.8907       3.5411      179.63       82.497       172.57       5.9228       5.8721       3.1994      179.62       88.185       172.54        5.885       5.8821       2.8632      179.61       93.962       172.79       5.9351       5.9209       2.5366      179.58       99.327       173.31       6.0685       5.9883       2.2168      179.54       104.15          174        6.271       6.0807       2.1132      179.48       108.27       174.79         6.52       6.1914       2.1946       179.4       111.59       175.58       6.7865       6.3103       2.2523       179.3        114.1       176.34       7.0378       6.4246       2.3944      179.18       115.79       177.01       7.2391       6.5182       2.5765      179.03       116.68       177.53       7.3557       6.5725       2.7084       178.7       116.76       176.86       7.3554       6.5675       2.7585nan                115.66 nan                7.1125       7.1125        3.289
8000    6.7655572    4.3678006    1.0456209    6.7655572    5.2167774    12.441415    1.0342179     2.687885            0   -806.90713   0.01696444   -806.86725   0.03234084   -806.80788  0.047705732   -806.72733  0.063073093   -806.62624   0.07844329    -806.5055  0.093816644   -806.36603   0.10919348   -806.20844   0.12457416   -806.03381   0.13995905   -805.84314   0.15534852   -805.63695   0.17074297   -805.41616   0.18614281   -805.18174   0.20154844   -804.93412   0.21696028   -804.67462   0.23237876   -804.40423   0.24780433   -804.12325   0.26323742    -803.8327   0.27867848   -803.53372   0.29412796    -803.2266   0.30958633   -802.91239   0.32505402   -802.59232   0.34053153   -802.26667   0.35601932   -801.93682   0.37151786   -801.60276   0.38702764   -801.26577   0.40254913   -800.92728   0.41808282   -800.58718    0.4336292   -800.24687   0.44918875   -799.90678   0.46476197   -799.56835   0.48034935   -799.23196   0.49595139   -798.89868   0.51156858   -798.56919   0.52720141   -798.24523   0.54285039   -797.92676   0.55851601   -797.61512   0.57419876   -797.31134   0.58989914   -797.01702   0.60561766   -796.73237   0.62135481   -796.45857   0.63711114   -796.19753   0.65288716    -795.9496   0.66868345   -795.71662   0.68450059   -795.49931   0.70033926   -795.29914   0.71620017   -795.11775   0.73208415   -794.95609   0.74799217   -794.81536   0.76392536   -794.69692   0.77988509    -794.6017   0.79587304   -794.53099   0.81189113   -794.48565   0.82793444   -794.46571   0.84398659   -794.47212   0.86010604   -794.50457   0.87626638   -794.56174   0.89247205   -794.64293   0.90872822   -794.74509   0.92504066   -794.86568   0.94141554   -795.00039   0.95785934   -795.14332   0.97445608   -795.28904            1   -795.49993 nan                56.703       149.65       1.0456       1.0456      0.22914      179.59       32.755        165.7       1.3964      0.75559     0.093286      179.62       25.602       171.98       1.8834      0.81385     0.068421      179.62       24.239       174.98       2.4157      0.99178     0.073728      179.63         24.6       176.55       2.9554       1.2303      0.15863      179.64       25.365       177.45       3.4877       1.4941      0.27263      179.65       26.168          178        4.006       1.7667       0.4114      179.65       26.915       178.36       4.5069       2.0401      0.57153      179.66       27.589       178.59       4.9886       2.3104      0.74973      179.66       28.198       178.76       5.4499       2.5752      0.94281      179.67       28.753       178.87       5.8903       2.8334       1.1477      179.67       29.263       178.96       6.3093       3.0841       1.3615      179.67       29.738       179.02       6.7066       3.3267       1.5815      179.67       30.186       179.06        7.082       3.5609       1.8052      179.67       30.611        179.1       7.4355       3.7862       2.0299      179.68       31.019       179.12       7.7669       4.0024       2.2536      179.68       31.413       179.14       8.0763       4.2094       2.4741      179.68       31.796       179.15       8.3636       4.4067       2.6893      179.68       32.171       179.16       8.6286       4.5943       2.8975      179.68       32.541       179.17       8.8715        4.772        3.097      179.67       32.905       179.17       9.0921       4.9393       3.2862      179.67       33.268       179.17       9.2905       5.0963       3.4638      179.67       33.628       179.17       9.4664       5.2425       3.6282      179.67       33.989       179.16       9.6198       5.3779       3.7785      179.67       34.352       179.16       9.7507       5.5021       3.9136      179.67       34.717       179.15       9.8588       5.6148       4.0324      179.66       35.086       179.13        9.944       5.7159       4.1342      179.66       35.462       179.12       10.006       5.8051       4.2183      179.66       35.845        179.1       10.045       5.8822       4.2841      179.66       36.239       179.07        10.06        5.947       4.3311      179.65       36.646       179.04       10.051       5.9993       4.3591      179.65       37.069       179.01       10.019       6.0389       4.3678      179.65       37.512       178.96       9.9615       6.0658       4.3573      179.64        37.98       178.91       9.8797       6.0798       4.3276      179.64       38.479       178.85        9.773       6.0811        4.279      179.64       39.017       178.77       9.6413       6.0697       4.2119      179.63       39.603       178.68       9.4843       6.0459       4.1363      179.63       40.248       178.57       9.3021         6.01       4.1465      179.63       40.966       178.44       9.0948       5.9627       4.1244      179.62       41.777       178.27       8.8627       5.9046       4.0687      179.62       42.702       178.08       8.6065       5.8368       3.9784      179.62        43.77       177.84       8.3273       5.7606       3.8533      179.62       45.018       177.55       8.0269       5.6776       3.6938      179.62       46.491        177.2       7.7076         5.59       3.5013      179.62       48.246       176.77        7.373       5.5003       3.2776      179.62       50.354       176.26        7.028       5.4115        3.026      179.62       52.897       175.64       6.6794       5.3272       2.7504      179.62       55.972       174.93       6.3361       5.2512       2.4559      179.62       59.679       174.14       6.0102       5.1881       2.1487      179.62       64.104        173.3       5.7163       5.1423       1.9168      179.63       69.289       172.53       5.4722       5.1185       1.8021      179.63       75.187       171.94       5.2968       5.1208       1.8228      179.63       81.624       171.68       5.2077       5.1522       1.8669      179.62       88.319       171.83       5.2168       5.2145       1.9088       179.6       94.949       172.33       5.3262       5.3063       1.9453      179.57       100.95       173.13       5.5265       5.4258       1.9829      179.51       106.17       174.07        5.797       5.5678       2.0178      179.42       110.44       175.04       6.1089       5.7242       2.0491       179.3       113.74       175.95       6.4286       5.8845        2.075      179.15       116.09       176.78       6.7201       6.0353       2.1659      178.97       117.52       177.48       6.9469       6.1608       2.3305      178.76       118.06       177.95       7.0746       6.2429       2.4477      178.22        117.7       176.71       7.0724        6.262       2.4816nan                115.64 nan                6.7656       6.7656        3.018
9000    6.4358073    3.6374268    1.0351295    6.4358073    4.7861948    12.370267    1.0902572    2.7017204            0   -806.91033  0.017502538   -806.86896  0.032814486    -806.8098   0.04810298   -806.73006  0.063394488   -806.63052  0.078689464   -806.51172  0.093988197   -806.37457   0.10929099   -806.21983   0.12459817   -806.04851   0.13991009   -805.86136   0.15522713   -805.65899   0.17054967   -805.44222   0.18587813   -805.21164   0.20121292   -804.96844   0.21655446    -804.7136    0.2319032   -804.44759   0.24725959   -804.17109   0.26262408   -803.88514   0.27799713   -803.59068    0.2933792   -803.28783   0.30877078    -802.9781   0.32417233    -802.6621   0.33958432   -802.34011   0.35500725   -802.01425   0.37044157   -801.68364   0.38588779   -801.34999   0.40134636   -801.01417   0.41681777   -800.67654   0.43230248   -800.33864   0.44780096   -800.00038   0.46331367   -799.66341   0.47884106   -799.32783   0.49438357    -798.9954   0.50994162   -798.66623   0.52551563   -798.34194   0.54110601   -798.02275   0.55671316   -797.71041   0.57233744   -797.40528   0.58797924   -797.10915    0.6036389   -796.82254   0.61931678    -796.5468   0.63501326   -796.28316   0.65072869   -796.03285   0.66646347   -795.79714   0.68221808   -795.57755   0.69799303   -795.37499   0.71378897   -795.19146   0.72960668   -795.02784   0.74544718   -794.88583   0.76131178   -794.76642   0.77720214   -794.67119   0.79312045   -794.60099   0.80906929   -794.55732   0.82504122   -794.54006   0.84101629   -794.54988   0.85707131   -794.58649   0.87317234   -794.64887    0.8893262   -794.73546   0.90554092   -794.84348   0.92182562   -794.96978   0.93818999   -795.10931   0.95464454   -795.25555   0.97134462   -795.40264            1   -795.63032 nan                56.309        149.7       1.0351       1.0351      0.22556      179.52       32.048       166.17       1.3883      0.73679     0.090722      179.56       24.804       172.14       1.8562      0.77871     0.066647      179.57       23.204       175.04       2.3658      0.93215      0.07275      179.58       23.396       176.58       2.8825       1.1446      0.10731      179.59        24.05       177.47       3.3923       1.3825      0.15371       179.6       24.769       178.02       3.8887       1.6292      0.21984      179.61       25.445       178.38       4.3685       1.8769      0.31216      179.62       26.055       178.62       4.8298       2.1214      0.41616      179.63       26.602       178.79       5.2715       2.3606      0.52992      179.63       27.096       178.91       5.6929        2.593      0.65154      179.64       27.544          179       6.0937       2.8179      0.77915      179.64       27.957       179.06       6.4734       3.0348      0.91096      179.64       28.341       179.11        6.832       3.2433       1.0453      179.64       28.701       179.14       7.1693        3.443        1.206      179.65       29.043       179.17       7.4853       3.6338       1.3707      179.65        29.37       179.19       7.7798       3.8156       1.5351      179.65       29.684        179.2       8.0529        3.988       1.6969      179.65       29.989       179.21       8.3045       4.1509       1.8543      179.65       30.286       179.22       8.5346       4.3042       2.0053      179.64       30.577       179.22       8.7432       4.4476       2.1479      179.64       30.863       179.23       8.9301        4.581       2.2807      179.64       31.146       179.22       9.0953       4.7043        2.402      179.64       31.426       179.22       9.2387       4.8171       2.5102      179.64       31.706       179.22       9.3603       4.9194        2.604      179.63       31.986       179.21       9.4597       5.0109       2.6822      179.63       32.267       179.19       9.5369       5.0915       2.7438      179.63       32.552       179.18       9.5917       5.1609       2.7877      179.63       32.842       179.16       9.6237       5.2192       2.8232      179.62       33.139       179.14       9.6328        5.266       2.9831      179.62       33.446       179.11       9.6186       5.3014       3.1313      179.61       33.767       179.07       9.5809       5.3252       3.2653      179.61       34.105       179.03       9.5192       5.3376       3.3826      179.61       34.466       178.98       9.4333       5.3385       3.4808       179.6       34.856       178.92       9.3229       5.3282       3.5574       179.6       35.283       178.84       9.1876        5.307       3.6103      179.59       35.758       178.75       9.0272       5.2751       3.6374      179.59       36.292       178.63       8.8416       5.2333        3.637      179.59       36.902       178.49       8.6308       5.1823       3.6076      179.58       37.609       178.33       8.3949       5.1232       3.5483      179.58       38.439       178.12       8.1345       5.0571       3.4585      179.58       39.426       177.87       7.8507       4.9858       3.3383      179.58       40.612       177.55       7.5448       4.9112       3.1883      179.58       42.053       177.17       7.2193       4.8356         3.01      179.58       43.819       176.69       6.8777        4.762       2.8054      179.58       45.997       176.11       6.5252       4.6936       2.5777      179.58       48.694       175.41       6.1688        4.634       2.3307      179.59       52.036       174.57       5.8185       4.5873       2.0691       179.6       56.155       173.63       5.4875       4.5576       1.7986      179.61       61.167       172.65       5.1928        4.549       1.5706      179.62       67.123       171.75       4.9549       4.5652       1.6126      179.63       73.946       171.13       4.7961       4.6091       1.6543      179.63       81.375       170.97        4.736       4.6824       1.6961      179.62       89.009       171.33       4.7862       4.7855       1.7371       179.6       96.357       172.09       4.9455       4.9151       1.7753      179.55       102.86       173.13       5.1992       5.0689       1.8159      179.46       108.32       174.26       5.5205       5.2406       1.8561      179.33       112.66       175.35       5.8755       5.4221       1.8953      179.16       115.87       176.34       6.2269        5.603        1.932      178.96       118.01       177.21       6.5364       5.7707       1.9976      178.71       119.14        177.9       6.7666         5.91       2.1759      178.42       119.29       178.25        6.883       6.0031       2.3132      177.54       118.42       176.06       6.8569       6.0308       2.4093nan                115.01 nan                6.4358       6.4358       2.9946
10000    6.0832404     3.078106    1.0227185    6.0832404    4.5047732    12.295721    1.1548321    2.7184084            0   -806.91421  0.018146318   -806.87107  0.033387482     -806.812  0.048585718   -806.73308  0.063787737   -806.63497  0.078994217   -806.51823  0.094205394   -806.38352   0.10942152   -806.23191   0.12464289   -806.06376   0.13986984   -805.88013   0.15510269   -805.68175   0.17034186   -805.46895   0.18558772   -805.24277   0.20084069   -805.00403    0.2161012   -804.75345   0.23136969   -804.49171   0.24664664   -804.21968   0.26193249   -803.93824   0.27722772   -803.64807   0.29253282   -803.34946   0.30784825   -803.04373    0.3231745   -802.73163   0.33851206   -802.41317    0.3538614   -802.09053   0.36922299   -801.76315   0.38459731    -801.4326   0.39998481   -801.09918   0.41538593   -800.76366    0.4308011   -800.42734   0.44623075   -800.09063   0.46167525   -799.75458     0.477135   -799.41958   0.49261032    -799.0875   0.50810153   -798.75815   0.52360894   -798.43343   0.53913279   -798.11329   0.55467331   -797.79964   0.57023069   -797.49309   0.58580512   -797.19506   0.60139672   -796.90646   0.61700563   -796.62845     0.632632   -796.36249   0.64827594   -796.10987   0.66393766   -795.87206   0.67961742   -795.65032   0.69531558   -795.44579    0.7110327   -795.26066   0.72676956   -795.09634    0.7425273   -794.95385   0.75830752   -794.83487   0.77411239   -794.74065   0.78994486   -794.67247   0.80580852   -794.63175    0.8216919   -794.61849   0.83757717   -794.63303    0.8535548   -794.67537   0.86958647   -794.74443   0.88568253   -794.83815   0.90185551   -794.95358   0.91811973   -795.08679   0.93449047   -795.23207   0.95098516   -795.38254   0.96787102   -795.53211            1   -795.77332 nan                 55.85       149.52       1.0227       1.0227      0.22129      179.43       31.374       166.67       1.3819      0.71966     0.087707      179.49       24.309       172.33       1.8339      0.75495     0.064442       179.5       22.616       175.12       2.3237      0.89359      0.07036      179.52       22.687       176.62       2.8203       1.0878      0.10509      179.53       23.237        177.5       3.3103        1.306      0.14874      179.55       23.866       178.05       3.7877       1.5325      0.19555      179.56       24.459       178.41       4.2493       1.7594       0.2439      179.57       24.992       178.65       4.6932       1.9828       0.3038      179.58       25.463       178.82       5.1183       2.2005       0.4107      179.58       25.882       178.94       5.5239       2.4113      0.52828      179.59       26.258       179.03       5.9096       2.6145       0.6544      179.59       26.597        179.1       6.2751       2.8095      0.78701       179.6       26.908       179.15       6.6202        2.996      0.92406       179.6       27.194       179.18       6.9447       3.1738       1.0635       179.6       27.462       179.21       7.2487       3.3428       1.2036      179.61       27.714       179.23       7.5319       3.5028       1.3424      179.61       27.953       179.25       7.7944       3.6536       1.4782      179.61       28.181       179.26       8.0362       3.7951       1.6093      179.61         28.4       179.27       8.2571       3.9273       1.7342       179.6       28.612       179.27       8.4572       4.0499       1.8514       179.6       28.817       179.27       8.6364       4.1629       1.9595       179.6       29.017       179.27       8.7947       4.2661       2.0574       179.6       29.214       179.27       8.9318       4.3593       2.1436       179.6       29.407       179.26       9.0477       4.4425       2.2174      179.59       29.599       179.26       9.1421       4.5156       2.2777      179.59       29.791       179.25       9.2151       4.5784       2.3237      179.58       29.984       179.23       9.2662       4.6308       2.3548      179.58        30.18       179.21       9.2952       4.6729       2.4384      179.58       30.382       179.19       9.3018       4.7045       2.5717      179.57       30.592       179.16       9.2858       4.7257       2.6939      179.57       30.814       179.13       9.2466       4.7366        2.803      179.56       31.052       179.09       9.1841       4.7373       2.8967      179.56       31.312       179.04       9.0976        4.728       2.9729      179.55       31.601       178.97       8.9869       4.7092       3.0298      179.55       31.928        178.9       8.8516       4.6812       3.0654      179.54       32.304        178.8       8.6913       4.6448       3.0781      179.54       32.744       178.69       8.5057       4.6006       3.0667      179.53       33.265       178.55       8.2948       4.5498       3.0301      179.53       33.891       178.37       8.0585       4.4936       2.9678      179.53       34.653       178.16       7.7974       4.4336       2.8796      179.52       35.588       177.89        7.512       4.3716       2.7659      179.52       36.746       177.56        7.204       4.3099       2.6275      179.53       38.192       177.15       6.8755       4.2511       2.4662      179.53       40.008       176.63         6.53       4.1981       2.2842      179.53       42.297       175.99       6.1728       4.1541       2.0844      179.54       45.188       175.21       5.8112       4.1226       1.8705      179.55       48.833       174.27        5.456       4.1073       1.6467      179.57       53.395       173.19       5.1216       4.1114       1.4182      179.59       59.013       172.07       4.8271       4.1382       1.4276       179.6       65.743       171.08       4.5957         4.19       1.4762      179.62       73.467       170.45       4.4524       4.2683       1.5276      179.64       81.819       170.41       4.4185       4.3735       1.5818      179.62       90.281          171       4.5048       4.5047        1.638       179.6       98.197       171.99       4.7058       4.6577       1.6949      179.53       105.06       173.24       5.0019       4.8302        1.753       179.4       110.66        174.5       5.3607       5.0158         1.81      179.23       114.98       175.67       5.7441        5.207       1.8638         179       118.04       176.71       6.1121       5.3944       1.9405      178.72       119.95       177.59        6.424       5.5663       2.1189      178.39       120.74       178.23       6.6416       5.7083       2.2719      178.01       120.44       178.35       6.7307       5.8029       2.3829      176.62       118.98       174.73       6.6641       5.8302       2.4555nan                113.68 nan                6.0832       6.0832       2.8002
[...]
Climbing replica = 52
Step MaxReplicaForce MaxAtomForce GradV0 GradV1 GradVc EBF EBR RDT RD1 PE1 RD2 PE2 ... RDN PEN pathangle1 angletangrad1 anglegrad1 gradV1 ReplicaForce1 MaxAtomForce1 pathangle2 angletangrad2 ... ReplicaForceN MaxAtomForceN
33909    1.1529735   0.26929379   0.55031158    1.1529735    1.0105275    10.771059    1.8780449    3.3628328            0   -807.09152  0.050110758   -807.00641  0.075016443   -806.94491  0.091997338    -806.8935   0.10749189   -806.83795   0.12304572   -806.77152    0.1387765    -806.6907   0.15449277   -806.59334   0.17001216   -806.47817   0.18524016   -806.34521   0.20015627   -806.19466   0.21477968   -806.02718   0.22914465    -805.8438   0.24328796   -805.64507   0.25724359   -805.43182   0.27104099   -805.20499   0.28470485   -804.96551   0.29825559   -804.71442   0.31170991   -804.45234   0.32508146    -804.1802    0.3383813   -803.89875   0.35161841   -803.60918   0.36480007   -803.31179   0.37793216    -803.0081   0.39101941   -802.69887   0.40406565   -802.38485   0.41707393   -802.06673   0.43004671   -801.74592   0.44298596   -801.42299   0.45589325   -801.09931   0.46876986   -800.77597   0.48161684   -800.45365    0.4944351    -800.1335   0.50722545    -799.8169   0.51998865   -799.50484   0.53272551   -799.19908   0.54543689   -798.89992   0.55812379   -798.60982   0.57078741   -798.32945   0.58342923   -798.06014   0.59605104   -797.80422    0.6086551   -797.56245   0.62124425   -797.33684   0.63382202    -797.1293   0.64639286   -796.94112   0.65896238   -796.77424   0.67153768   -796.63046   0.68412786   -796.51165   0.69674463   -796.41942   0.70940328    -796.3556   0.72212265   -796.32235   0.73491235   -796.32046    0.7478047   -796.35137   0.76083857   -796.41659   0.77409409   -796.51588   0.78767384   -796.65007   0.80171545   -796.81844   0.81645313   -797.01998   0.83234092   -797.25283   0.85042808    -797.5157   0.87356009   -797.80699   0.90873614   -798.07732   0.96134178   -798.19778            1   -798.19851 nan                46.199       155.38      0.55031      0.55031     0.058018      173.33       35.089        171.7      0.80718       0.5033       0.0574      173.83        32.86        174.3      0.99827      0.54511     0.043665      173.74       30.961        174.4       1.1617      0.59778     0.034361      172.86       28.718       174.05       1.3445      0.64601     0.043373      171.95       26.114       173.93       1.5698      0.69093     0.063763      171.68       23.398       174.23       1.8475       0.7337     0.089523      172.27        20.87       174.87       2.1759      0.77515      0.11677      173.42       18.679       175.63       2.5424      0.81425      0.14162      174.67       16.829       176.34       2.9306      0.84846      0.16171      175.73       15.274       176.92       3.3257      0.87609      0.17668      176.53       13.967       177.39       3.7168      0.89714      0.18734      177.13       12.871       177.75        4.097      0.91261      0.19476      177.57       11.948       178.03        4.462      0.92377      0.19985       177.9       11.172       178.25        4.809      0.93174       0.2033      178.15       10.515       178.42       5.1369       0.9374       0.2056      178.34       9.9566       178.56       5.4446      0.94138      0.20709       178.5       9.4812       178.67       5.7317      0.94415      0.20799      178.62       9.0749       178.76       5.9982      0.94606      0.20849      178.72        8.727       178.83       6.2438      0.94735      0.20869       178.8        8.429        178.9       6.4685      0.94818      0.20868      178.86       8.1743       178.95       6.6723       0.9487       0.2085      178.92       7.9574          179        6.855      0.94898      0.20823      178.97       7.7741       179.04       7.0166      0.94911      0.20785      179.01       7.6211       179.07       7.1567      0.94913      0.20746      179.05       7.4959       179.11       7.2751      0.94908      0.20698      179.09       7.3967       179.14       7.3715      0.94899      0.20653      179.12       7.3222       179.16       7.4452      0.94888      0.20603      179.14       7.2715       179.19       7.4958      0.94875      0.20554      179.17       7.2446       179.21       7.5225      0.94864      0.20504      179.19       7.2418       179.23       7.5247      0.94854      0.20456      179.21       7.2639       179.25       7.5013      0.94846      0.20409      179.24       7.3123       179.27       7.4513      0.94839      0.20362      179.26       7.3894       179.28       7.3738      0.94836      0.20317      179.27       7.4982       179.29       7.2673      0.94834      0.20273      179.29       7.6428        179.3       7.1307      0.94836      0.20231      179.31       7.8289       179.31       6.9625       0.9484      0.20191      179.33        8.064        179.3       6.7612      0.94846      0.20152      179.35       8.3583       179.29       6.5254      0.94855      0.20116      179.37       8.7255       179.25       6.2535      0.94866      0.20081      179.39       9.1849       179.19        5.944      0.94879      0.20047      179.42       9.7638       179.09       5.5956      0.94894      0.20016      179.44       10.502       178.92        5.207      0.94911      0.19985      179.47       11.461       178.64       4.7774      0.94931      0.19956      179.49       12.737       178.19       4.3067      0.94951      0.19929      179.53       14.491       177.44       3.7955      0.94973      0.19903      179.56       17.015       176.11       3.2464      0.94997      0.19879       179.6       20.887       173.48       2.6652      0.95023      0.19856      179.64       27.397       167.54       2.0656      0.95049      0.19834      179.69       39.847       153.23       1.4839      0.95078      0.19813      179.73       66.603        136.9       1.0363      0.95108      0.19791      179.76        109.7       150.41       1.0105       1.0105      0.19413      179.73       139.25       166.27       1.4581      0.95173      0.19753      179.59       152.95       173.02       2.0933       0.9521      0.19734      179.36       159.86       175.98       2.7666      0.95251      0.19716      179.01       163.77        177.4       3.4091      0.95297      0.19698      178.47       166.08       177.92       3.9638      0.95349       0.1968      177.59       167.37       177.54       4.3639      0.95412      0.19667      175.89        167.8       175.95       4.5182      0.95493       0.1967      171.79       167.11       171.48       4.2836      0.95635      0.19744      159.24       163.66       155.02       3.3962      0.96002      0.20109       141.9       147.08       137.72       1.7516      0.96138      0.20631      153.75       109.09       165.01       1.0889       1.0346      0.19827nan                85.233 nan                 1.153        1.153      0.26929
33910    1.1529735   0.26929379   0.55031158    1.1529735    1.0105275    10.771059    1.8780449    3.3628328            0   -807.09152  0.050110758   -807.00641  0.075016443   -806.94491  0.091997338    -806.8935   0.10749189   -806.83795   0.12304572   -806.77152    0.1387765    -806.6907   0.15449277   -806.59334   0.17001216   -806.47817   0.18524016   -806.34521   0.20015627   -806.19466   0.21477968   -806.02718   0.22914465    -805.8438   0.24328796   -805.64507   0.25724359   -805.43182   0.27104099   -805.20499   0.28470485   -804.96551   0.29825559   -804.71442   0.31170991   -804.45234   0.32508146    -804.1802    0.3383813   -803.89875   0.35161841   -803.60918   0.36480007   -803.31179   0.37793216    -803.0081   0.39101941   -802.69887   0.40406565   -802.38485   0.41707393   -802.06673   0.43004671   -801.74592   0.44298596   -801.42299   0.45589325   -801.09931   0.46876986   -800.77597   0.48161684   -800.45365    0.4944351    -800.1335   0.50722545    -799.8169   0.51998865   -799.50484   0.53272551   -799.19908   0.54543689   -798.89992   0.55812379   -798.60982   0.57078741   -798.32945   0.58342923   -798.06014   0.59605104   -797.80422    0.6086551   -797.56245   0.62124425   -797.33684   0.63382202    -797.1293   0.64639286   -796.94112   0.65896238   -796.77424   0.67153768   -796.63046   0.68412786   -796.51165   0.69674463   -796.41942   0.70940328    -796.3556   0.72212265   -796.32235   0.73491235   -796.32046    0.7478047   -796.35137   0.76083857   -796.41659   0.77409409   -796.51588   0.78767384   -796.65007   0.80171545   -796.81844   0.81645313   -797.01998   0.83234092   -797.25283   0.85042808    -797.5157   0.87356009   -797.80699   0.90873614   -798.07732   0.96134178   -798.19778            1   -798.19851 nan                46.199       155.38      0.55031      0.55031     0.058018      173.33       35.089        171.7      0.80718       0.5033       0.0574      173.83        32.86        174.3      0.99827      0.54511     0.043665      173.74       30.961        174.4       1.1617      0.59778     0.034361      172.86       28.718       174.05       1.3445      0.64601     0.043373      171.95       26.114       173.93       1.5698      0.69093     0.063763      171.68       23.398       174.23       1.8475       0.7337     0.089523      172.27        20.87       174.87       2.1759      0.77515      0.11677      173.42       18.679       175.63       2.5424      0.81425      0.14162      174.67       16.829       176.34       2.9306      0.84846      0.16171      175.73       15.274       176.92       3.3257      0.87609      0.17668      176.53       13.967       177.39       3.7168      0.89714      0.18734      177.13       12.871       177.75        4.097      0.91261      0.19476      177.57       11.948       178.03        4.462      0.92377      0.19985       177.9       11.172       178.25        4.809      0.93174       0.2033      178.15       10.515       178.42       5.1369       0.9374       0.2056      178.34       9.9566       178.56       5.4446      0.94138      0.20709       178.5       9.4812       178.67       5.7317      0.94415      0.20799      178.62       9.0749       178.76       5.9982      0.94606      0.20849      178.72        8.727       178.83       6.2438      0.94735      0.20869       178.8        8.429        178.9       6.4685      0.94818      0.20868      178.86       8.1743       178.95       6.6723       0.9487       0.2085      178.92       7.9574          179        6.855      0.94898      0.20823      178.97       7.7741       179.04       7.0166      0.94911      0.20785      179.01       7.6211       179.07       7.1567      0.94913      0.20746      179.05       7.4959       179.11       7.2751      0.94908      0.20698      179.09       7.3967       179.14       7.3715      0.94899      0.20653      179.12       7.3222       179.16       7.4452      0.94888      0.20603      179.14       7.2715       179.19       7.4958      0.94875      0.20554      179.17       7.2446       179.21       7.5225      0.94864      0.20504      179.19       7.2418       179.23       7.5247      0.94854      0.20456      179.21       7.2639       179.25       7.5013      0.94846      0.20409      179.24       7.3123       179.27       7.4513      0.94839      0.20362      179.26       7.3894       179.28       7.3738      0.94836      0.20317      179.27       7.4982       179.29       7.2673      0.94834      0.20273      179.29       7.6428        179.3       7.1307      0.94836      0.20231      179.31       7.8289       179.31       6.9625       0.9484      0.20191      179.33        8.064        179.3       6.7612      0.94846      0.20152      179.35       8.3583       179.29       6.5254      0.94855      0.20116      179.37       8.7255       179.25       6.2535      0.94866      0.20081      179.39       9.1849       179.19        5.944      0.94879      0.20047      179.42       9.7638       179.09       5.5956      0.94894      0.20016      179.44       10.502       178.92        5.207      0.94911      0.19985      179.47       11.461       178.64       4.7774      0.94931      0.19956      179.49       12.737       178.19       4.3067      0.94951      0.19929      179.53       14.491       177.44       3.7955      0.94973      0.19903      179.56       17.015       176.11       3.2464      0.94997      0.19879       179.6       20.887       173.48       2.6652      0.95023      0.19856      179.64       27.397       167.54       2.0656      0.95049      0.19834      179.69       39.847       153.23       1.4839      0.95078      0.19813      179.73       66.603        136.9       1.0363      0.95108      0.19791      179.76        109.7       150.41       1.0105       1.0105      0.19413      179.73       139.25       166.27       1.4581      0.95173      0.19753      179.59       152.95       173.02       2.0933       0.9521      0.19734      179.36       159.86       175.98       2.7666      0.95251      0.19716      179.01       163.77        177.4       3.4091      0.95297      0.19698      178.47       166.08       177.92       3.9638      0.95349       0.1968      177.59       167.37       177.54       4.3639      0.95412      0.19667      175.89        167.8       175.95       4.5182      0.95493       0.1967      171.79       167.11       171.48       4.2836      0.95635      0.19744      159.24       163.66       155.02       3.3962      0.96002      0.20109       141.9       147.08       137.72       1.7516      0.96138      0.20631      153.75       109.09       165.01       1.0889       1.0346      0.19827nan                85.233 nan                 1.153        1.153      0.26929
